# LAMMPS input file generated from XDATCAR: H He Li Be

168 atoms
4 atom types

0.000000 11.400000 xlo xhi
0.000000 11.400000 ylo yhi
0.000000 11.400000 zlo zhi
0.000000 0.000000 0.000000 xy xz yz

Atoms

1 1 7.463880 4.746990 10.717900
2 1 1.784870 3.911290 6.112550
3 1 7.870270 3.922220 0.492250
4 1 9.007570 4.634880 0.011193
5 1 7.553750 5.503510 9.495640
6 1 10.933700 4.075310 1.620570
7 1 10.347200 3.765880 8.597160
8 1 11.380100 10.272400 8.596990
9 1 6.899590 4.914200 7.222320
10 1 1.087710 6.696980 7.919730
11 1 10.779700 10.982400 9.717180
12 1 3.126360 2.455820 7.858700
13 1 6.738050 3.954760 6.634610
14 1 10.664000 5.541140 5.194520
15 1 3.491890 5.103960 8.002250
16 1 0.399389 4.808540 1.178170
17 1 9.945270 0.736095 7.487700
18 1 11.325000 2.430850 10.066500
19 1 1.494130 5.584140 10.710100
20 1 1.151560 2.361660 8.812410
21 1 11.071400 5.518790 11.190400
22 1 10.819200 8.021130 7.257400
23 1 4.902560 4.657570 8.918110
24 1 9.879120 4.828170 3.940720
25 1 9.280980 6.678650 9.453570
26 1 7.793190 9.582530 8.314290
27 1 3.438080 3.602860 8.689660
28 1 2.254190 5.318300 9.173600
29 1 7.798720 1.450030 8.674910
30 1 0.963763 4.506970 5.425940
31 1 10.610100 10.373800 8.594920
32 1 10.484900 3.710640 3.184430
33 2 3.459180 10.551400 2.085040
34 2 5.324810 10.173700 3.219240
35 2 6.246750 10.375800 3.196820
36 2 4.517210 8.562950 2.244990
37 2 4.518360 11.167700 1.209150
38 2 4.248300 8.778250 4.170410
39 2 5.366890 8.787770 3.662150
40 2 5.228710 10.704500 4.465010
41 2 5.737640 9.845380 1.862640
42 2 3.847850 10.419700 3.044470
43 2 3.871100 9.430760 3.579290
44 2 5.697780 0.414149 1.855460
45 2 6.443010 10.341600 4.335460
46 2 4.019120 11.152800 2.167110
47 2 3.555780 10.170200 3.381090
48 2 3.687500 10.050000 1.571510
49 2 5.101190 8.423090 3.187960
50 2 5.523920 10.401600 1.420610
51 2 6.187490 8.846660 3.312910
52 2 5.216280 9.716300 4.173520
53 2 5.907510 10.257400 2.463500
54 2 6.641670 10.157200 3.045280
55 2 5.179750 0.029384 2.685680
56 2 4.029200 11.375500 3.682240
57 2 4.802230 10.826300 3.983480
58 2 5.178570 10.448500 2.327390
59 2 4.596290 0.181004 2.345250
60 2 4.605120 9.460900 2.667530
61 2 5.981400 10.974200 3.892440
62 2 3.966210 8.948540 1.974830
63 2 5.295350 9.106650 2.203920
64 2 3.985100 10.562700 4.102360
65 3 5.256330 10.801600 5.564990
66 3 6.291690 10.217500 6.318830
67 3 1.884250 9.491580 2.227040
68 3 2.670420 7.475780 3.641820
69 3 4.887680 7.593860 4.967040
70 3 7.536910 8.801330 3.158320
71 3 8.181950 8.128430 4.187830
72 3 3.698990 10.866500 5.656920
73 3 5.566290 1.504490 0.962511
74 3 4.499720 6.849970 3.449270
75 3 3.539920 0.387463 0.362424
76 3 3.407940 8.277280 3.751680
77 3 1.555340 9.331510 3.477370
78 3 4.859050 1.313450 1.387840
79 3 4.772980 6.645450 1.372980
80 3 5.319600 7.032240 0.125132
81 3 3.095870 10.838800 0.661386
82 3 7.280890 10.721400 11.165900
83 3 3.407330 8.448000 6.298750
84 3 7.702750 9.395780 3.261090
85 3 7.222250 7.669810 2.854900
86 3 6.961490 0.791176 0.077336
87 3 6.783450 9.124120 0.200769
88 3 5.496720 7.043880 3.243940
89 3 7.311010 11.185600 3.005480
90 3 6.183370 8.250630 4.441890
91 3 4.879260 9.690170 0.111425
92 3 3.254510 1.409420 1.173130
93 3 6.331920 10.023700 5.274790
94 3 5.854550 2.644300 3.136960
95 3 5.894360 8.106760 1.212960
96 3 5.173890 11.307200 5.238930
97 3 6.108290 7.831170 2.031360
98 3 5.621300 6.977190 1.993650
99 3 1.455250 2.232980 3.133720
100 3 4.909160 7.652340 3.751910
101 3 1.828040 10.261200 4.365120
102 3 3.039800 8.431770 4.997580
103 3 6.874210 0.285429 2.481780
104 3 5.574390 9.120230 11.387400
105 3 4.523430 1.251670 4.141950
106 3 2.632040 10.203600 0.946734
107 3 6.289910 8.773670 0.421944
108 3 3.366880 0.323685 1.247880
109 3 7.164080 10.761100 4.165040
110 3 2.992680 7.815580 2.612360
111 3 4.636390 0.914800 3.422070
112 3 3.525750 8.371350 1.177660
113 3 2.984350 11.335500 4.863520
114 3 2.010950 8.878680 1.606570
115 3 5.512420 10.984800 11.092800
116 3 7.098160 10.963500 5.420580
117 3 5.072560 0.604840 0.346362
118 3 7.286250 10.537000 0.503799
119 3 3.423220 0.992948 4.863140
120 3 2.882930 9.653220 1.529890
121 3 5.256590 8.920100 5.021430
122 3 3.231670 6.575210 2.516890
123 3 4.243940 11.152600 0.238431
124 3 6.074890 1.135430 4.063350
125 3 7.217700 1.294790 4.005940
126 3 4.230920 1.717050 1.324980
127 3 2.822970 1.265500 3.342630
128 3 7.613760 8.804230 0.537828
129 3 4.224770 9.216380 5.255100
130 3 2.724160 10.349000 5.156820
131 3 2.179490 11.363700 4.334820
132 3 3.201550 8.155800 4.273860
133 3 2.871700 11.047800 2.303450
134 3 5.601710 10.883800 10.529700
135 3 7.616530 10.078600 4.642700
136 3 7.385600 8.945470 4.174040
137 3 7.206130 8.503210 1.592780
138 3 8.246900 10.979200 4.035140
139 3 2.763090 9.481970 4.795750
140 3 1.323770 8.395640 0.638409
141 3 7.120530 9.249830 5.350770
142 3 4.749250 1.040750 4.611350
143 3 4.659500 7.098770 0.653202
144 3 7.638280 11.114700 1.447970
145 3 8.571930 0.342617 1.938970
146 3 7.043740 1.342630 3.079890
147 3 6.876890 7.103250 4.408720
148 3 5.573540 1.588770 2.792660
149 3 3.985270 0.141437 10.747500
150 3 2.794320 1.753610 2.234250
151 3 7.731400 0.386139 4.989570
152 3 2.431560 8.835510 3.268150
153 3 1.668020 10.209600 2.636360
154 3 6.085330 11.142200 6.994640
155 3 2.846550 0.824852 4.463790
156 3 6.466330 1.065830 4.758870
157 3 4.493430 0.931498 5.678420
158 3 4.696130 8.507510 0.517524
159 3 7.941060 10.499800 1.590210
160 3 6.314090 8.780310 5.983200
161 4 0.402371 3.677160 10.014300
162 4 9.633520 4.021150 9.602700
163 4 0.525503 2.623510 10.531600
164 4 10.145800 5.369140 9.835590
165 4 11.135100 3.602240 9.949550
166 4 0.767788 4.014290 10.041400
167 4 11.227400 4.434450 9.931370
168 4 0.820659 3.846530 8.628980
